[Molden Format]
[Atoms] Angs
C     1    6         0.0000000000        0.0000000000        0.0083723931
S     2   16         0.0000000000        0.0000000000        1.5633848480
S     3   16         0.0000000000        0.0000000000       -1.5662765561
[GTO]
   1 0
 s    5  1.00
  0.1238401694D+04  0.5517365048D-02
  0.1862900499D+03  0.4108882856D-01
  0.4225117635D+02  0.1822538213D+00
  0.1167655793D+02  0.4682845944D+00
  0.3593050648D+01  0.4457581734D+00
 s    1  1.00
  0.4024514736D+00  0.1000000000D+01
 s    1  1.00
  0.1309018267D+00  0.1000000000D+01
 p    3  1.00
  0.9468097062D+01  0.5688833201D-01
  0.2010354514D+01  0.3129405934D+00
  0.5477100471D+00  0.7606501651D+00
 p    1  1.00
  0.1526861379D+00  0.1000000000D+01
 d    1  1.00
  0.8000000000D+00  0.1000000000D+01
  
   2 0
 s    5  1.00
  0.9184930301D+04 -0.5472946613D-02
  0.1381510550D+04 -0.4095440216D-01
  0.3138714758D+03 -0.1847582896D+00
  0.8805387062D+02 -0.4756728064D+00
  0.2703991490D+02 -0.4349515358D+00
 s    3  1.00
  0.4564873130D+02 -0.9190404581D-01
  0.4966452233D+01  0.5569877721D+00
  0.2011624205D+01  0.5111546830D+00
 s    1  1.00
  0.3566107701D+00  0.1000000000D+01
 s    1  1.00
  0.1350722148D+00  0.1000000000D+01
 p    5  1.00
  0.2619823344D+03 -0.9183054659D-02
  0.6130689474D+02 -0.6590222653D-01
  0.1910372989D+02 -0.2458778452D+00
  0.6656772038D+01 -0.4823147108D+00
  0.2395963516D+01 -0.3895631435D+00
 p    1  1.00
  0.6177616168D+00  0.1000000000D+01
 p    1  1.00
  0.1699337687D+00  0.1000000000D+01
 d    1  1.00
  0.5500000000D+00  0.1000000000D+01
  
   3 0
 s    5  1.00
  0.9184930301D+04 -0.5472946613D-02
  0.1381510550D+04 -0.4095440216D-01
  0.3138714758D+03 -0.1847582896D+00
  0.8805387062D+02 -0.4756728064D+00
  0.2703991490D+02 -0.4349515358D+00
 s    3  1.00
  0.4564873130D+02 -0.9190404581D-01
  0.4966452233D+01  0.5569877721D+00
  0.2011624205D+01  0.5111546830D+00
 s    1  1.00
  0.3566107701D+00  0.1000000000D+01
 s    1  1.00
  0.1350722148D+00  0.1000000000D+01
 p    5  1.00
  0.2619823344D+03 -0.9183054659D-02
  0.6130689474D+02 -0.6590222653D-01
  0.1910372989D+02 -0.2458778452D+00
  0.6656772038D+01 -0.4823147108D+00
  0.2395963516D+01 -0.3895631435D+00
 p    1  1.00
  0.6177616168D+00  0.1000000000D+01
 p    1  1.00
  0.1699337687D+00  0.1000000000D+01
 d    1  1.00
  0.5500000000D+00  0.1000000000D+01


[MO]
 Sym=      1.1
 Ene=     -91.9532
 Spin= Alpha
 Occup=    2.000000
1 0.000175649665262
2 -0.000841988446031
3 0.002494151485170
4 0.0
5 0.0
6 -0.000449317464696
7 0.0
8 0.0
9 -0.004426714757136
10 0.000382672748642
11 0.000382672748642
12 -0.000765345497283
13 0.0
14 0.0
15 0.0
16 0.99429830143685
17 -0.021401844282725
18 0.008857828170845
19 -0.002411569051215
20 0.0
21 0.0
22 -0.000217720385763
23 0.0
24 0.0
25 -0.000710499224058
26 0.0
27 0.0
28 -0.000845456154475
29 -0.000261630463756
30 -0.000261630463756
31 0.000523260927512
32 0.0
33 0.0
34 0.0
35 0.003920862316662
36 -0.000109776966009
37 0.000329825005901
38 -0.004103945791453
39 0.0
40 0.0
41 0.000043868655428
42 0.0
43 0.0
44 0.000211867808046
45 0.0
46 0.0
47 -0.002372348771553
48 0.000055755778175
49 0.000055755778175
50 -0.000111511556350
51 0.0
52 0.0
53 0.0
 Sym=      2.1
 Ene=     -91.9512
 Spin= Alpha
 Occup=    2.000000
1 0.000150632446907
2 -0.000726462096111
3 0.002738568225777
4 0.0
5 0.0
6 0.000362815711102
7 0.0
8 0.0
9 0.004303358573487
10 0.000362160666800
11 0.000362160666800
12 -0.000724321333601
13 0.0
14 0.0
15 0.0
16 -0.003925003237095
17 0.000061139758742
18 0.000261689112140
19 -0.004142489090884
20 0.0
21 0.0
22 -0.000038360103571
23 0.0
24 0.0
25 -0.000209310855074
26 0.0
27 0.0
28 0.002399965365122
29 0.000056471467088
30 0.000056471467088
31 -0.000112942934175
32 0.0
33 0.0
34 0.0
35 0.99430043352848
36 -0.021383282766253
37 0.008803344143408
38 -0.002616510276497
39 0.0
40 0.0
41 0.000225739810895
42 0.0
43 0.0
44 0.000697113072851
45 0.0
46 0.0
47 0.000767596999511
48 -0.000239732320549
49 -0.000239732320549
50 0.000479464641097
51 0.0
52 0.0
53 0.0
 Sym=      3.1
 Ene=     -11.3424
 Spin= Alpha
 Occup=    2.000000
1 0.99125807539930
2 0.032044949663662
3 -0.011937765541084
4 0.0
5 0.0
6 0.000346704313584
7 0.0
8 0.0
9 0.000291899550142
10 -0.001499526074386
11 -0.001499526074386
12 0.002999052148771
13 0.0
14 0.0
15 0.0
16 0.000094847430872
17 0.000709631861016
18 -0.002147231896092
19 0.002331101307612
20 0.0
21 0.0
22 0.000334783352130
23 0.0
24 0.0
25 0.001971966173267
26 0.0
27 0.0
28 0.000092434804798
29 0.001042910024149
30 0.001042910024149
31 -0.002085820048297
32 0.0
33 0.0
34 0.0
35 0.000097957510916
36 0.000708853689665
37 -0.002027603457494
38 0.002740054163670
39 0.0
40 0.0
41 -0.000490365345120
42 0.0
43 0.0
44 -0.002115206781387
45 0.0
46 0.0
47 -0.000094163376247
48 0.001051315839999
49 0.001051315839999
50 -0.002102631679998
51 0.0
52 0.0
53 0.0
 Sym=      4.1
 Ene=      -8.9912
 Spin= Alpha
 Occup=    2.000000
1 -0.000391962098202
2 -0.000719159434724
3 0.003730858153579
4 0.0
5 0.0
6 -0.000385354320574
7 0.0
8 0.0
9 -0.007699099497422
10 0.000019894041268
11 0.000019894041268
12 -0.000039788082535
13 0.0
14 0.0
15 0.0
16 0.30749058029867
17 1.02818617694275
18 0.029962176072984
19 -0.004516702281978
20 0.0
21 0.0
22 0.004370884040261
23 0.0
24 0.0
25 -0.001541017321285
26 0.0
27 0.0
28 -0.001757136434597
29 -0.000435704070095
30 -0.000435704070095
31 0.000871408140191
32 0.0
33 0.0
34 0.0
35 -0.004923045011291
36 -0.016411200230830
37 -0.000423703611081
38 -0.006572854868487
39 0.0
40 0.0
41 0.000129551876711
42 0.0
43 0.0
44 0.000043297096886
45 0.0
46 0.0
47 -0.003743707996912
48 0.000214272011518
49 0.000214272011518
50 -0.000428544023037
51 0.0
52 0.0
53 0.0
 Sym=      5.1
 Ene=      -8.9889
 Spin= Alpha
 Occup=    2.000000
1 -0.001274411634677
2 0.001321986511575
3 0.004633760530764
4 0.0
5 0.0
6 -0.001704922459890
7 0.0
8 0.0
9 0.006540847165288
10 0.000001120458990
11 0.000001120458990
12 -0.000002240917980
13 0.0
14 0.0
15 0.0
16 0.004978404710593
17 0.016796567898153
18 0.000156279613681
19 -0.006464749141404
20 0.0
21 0.0
22 0.000256371696289
23 0.0
24 0.0
25 0.000350563067548
26 0.0
27 0.0
28 0.003980328168528
29 0.000220789446184
30 0.000220789446184
31 -0.000441578892368
32 0.0
33 0.0
34 0.0
35 0.30750333797760
36 1.02833870479835
37 0.029667524584425
38 -0.006166244146644
39 0.0
40 0.0
41 -0.002950036580228
42 0.0
43 0.0
44 0.003543854306830
45 0.0
46 0.0
47 0.003222790739254
48 -0.000611308646787
49 -0.000611308646787
50 0.001222617293574
51 0.0
52 0.0
53 0.0
 Sym=      6.1
 Ene=      -6.6788
 Spin= Alpha
 Occup=    2.000000
1 -0.000433249416753
2 -0.000874221912229
3 0.006014118120968
4 0.0
5 0.0
6 -0.001131475516075
7 0.0
8 0.0
9 -0.004724071266392
10 0.000535904543966
11 0.000535904543966
12 -0.001071809087932
13 0.0
14 0.0
15 0.0
16 -0.001654033657305
17 -0.006494141266928
18 0.004070212246557
19 -0.000937853343561
20 0.0
21 0.0
22 0.98418925779245
23 0.0
24 0.0
25 -0.043889459894470
26 0.0
27 0.0
28 0.005975412551979
29 -0.000799790359815
30 -0.000799790359815
31 0.001599580719630
32 0.0
33 0.0
34 0.0
35 0.000026332404495
36 0.000095912310301
37 0.000366746187589
38 -0.005628081418108
39 0.0
40 0.0
41 0.013351410562073
42 0.0
43 0.0
44 -0.000262118828776
45 0.0
46 0.0
47 -0.002987160352701
48 0.000090027726382
49 0.000090027726382
50 -0.000180055452764
51 0.0
52 0.0
53 0.0
 Sym=      7.1
 Ene=      -6.6761
 Spin= Alpha
 Occup=    2.000000
1 0.001850919697553
2 -0.002395295790082
3 -0.007122063390847
4 0.0
5 0.0
6 0.002228570444229
7 0.0
8 0.0
9 -0.003286056009456
10 -0.000508702233415
11 -0.000508702233415
12 0.001017404466830
13 0.0
14 0.0
15 0.0
16 -0.000036896608253
17 -0.000264582246744
18 0.000104054302374
19 0.005212517351097
20 0.0
21 0.0
22 -0.013483866535285
23 0.0
24 0.0
25 0.000277423820867
26 0.0
27 0.0
28 -0.003579378115271
29 -0.000099256750106
30 -0.000099256750106
31 0.000198513500212
32 0.0
33 0.0
34 0.0
35 0.001571223589238
36 0.006057649947814
37 -0.003654959116649
38 0.003083902715219
39 0.0
40 0.0
41 0.98218623228338
42 0.0
43 0.0
44 -0.047283946761181
45 0.0
46 0.0
47 0.003334990258548
48 0.001061399158253
49 0.001061399158253
50 -0.002122798316506
51 0.0
52 0.0
53 0.0
 Sym=     12.1
 Ene=      -1.0761
 Spin= Alpha
 Occup=    2.000000
1 -0.15494678591431
2 0.31622102269474
3 0.036113115810223
4 0.0
5 0.0
6 0.21085692587120
7 0.0
8 0.0
9 0.048981360253226
10 -0.013191522815470
11 -0.013191522815470
12 0.026383045630939
13 0.0
14 0.0
15 0.0
16 -0.062482844751408
17 -0.39216650234358
18 0.54834925077986
19 0.21585719212399
20 0.0
21 0.0
22 -0.080534216738668
23 0.0
24 0.0
25 -0.12364033152823
26 0.0
27 0.0
28 -0.073064184406080
29 -0.021458397325023
30 -0.021458397325023
31 0.042916794650046
32 0.0
33 0.0
34 0.0
35 -0.016199668218842
36 -0.10214035642543
37 0.13792345978561
38 0.10328723008513
39 0.0
40 0.0
41 -0.012711572430699
42 0.0
43 0.0
44 -0.028973420375007
45 0.0
46 0.0
47 -0.026790444925032
48 0.000013370058452
49 0.000013370058452
50 -0.000026740116905
51 0.0
52 0.0
53 0.0
 Sym=     13.1
 Ene=      -0.9400
 Spin= Alpha
 Occup=    2.000000
1 0.022410593472211
2 -0.031517733177589
3 0.026944048279806
4 0.0
5 0.0
6 0.11963223839129
7 0.0
8 0.0
9 -0.029261793889577
10 0.003637480415563
11 0.003637480415563
12 -0.007274960831127
13 0.0
14 0.0
15 0.0
16 -0.019419332774377
17 -0.12272270827380
18 0.17129127069867
19 0.10544375173918
20 0.0
21 0.0
22 -0.007014845493954
23 0.0
24 0.0
25 -0.008421235999585
26 0.0
27 0.0
28 -0.007194284126513
29 -0.004325092558779
30 -0.004325092558779
31 0.008650185117558
32 0.0
33 0.0
34 0.0
35 0.077227799837240
36 0.49089533093558
37 -0.69129398292255
38 -0.41317014763550
39 0.0
40 0.0
41 0.026430037323951
42 0.0
43 0.0
44 0.058958799160028
45 0.0
46 0.0
47 0.068744727140087
48 0.004071489017610
49 0.004071489017610
50 -0.008142978035220
51 0.0
52 0.0
53 0.0
 Sym=     14.1
 Ene=      -0.6263
 Spin= Alpha
 Occup=    2.000000
1 0.12865510688193
2 -0.29521398177880
3 -0.11297931764952
4 0.0
5 0.0
6 -0.23836988281326
7 0.0
8 0.0
9 -0.13322096169935
10 0.006362296275970
11 0.006362296275970
12 -0.012724592551940
13 0.0
14 0.0
15 0.0
16 -0.044426643451499
17 -0.29014047009569
18 0.41263776088991
19 0.42696466540683
20 0.0
21 0.0
22 0.19395982971012
23 0.0
24 0.0
25 0.33914719411829
26 0.0
27 0.0
28 0.28271830325212
29 0.028383189549424
30 0.028383189549424
31 -0.056766379098848
32 0.0
33 0.0
34 0.0
35 -0.009774824043670
36 -0.063200562924626
37 0.10016952651678
38 -0.018396078656404
39 0.0
40 0.0
41 0.012377998404981
42 0.0
43 0.0
44 0.024956189479340
45 0.0
46 0.0
47 -0.001748466055968
48 -0.000899527602755
49 -0.000899527602755
50 0.001799055205511
51 0.0
52 0.0
53 0.0
 Sym=      8.1
 Ene=      -6.6757
 Spin= Alpha
 Occup=    2.000000
1 0.0
2 0.0
3 0.0
4 0.0
5 0.000261291767482
6 0.0
7 0.0
8 0.001648592205696
9 0.0
10 0.0
11 0.0
12 0.0
13 0.0
14 0.0
15 -0.000284834900290
16 0.0
17 0.0
18 0.0
19 0.0
20 0.0
21 -0.98420024533776
22 0.0
23 0.0
24 0.042723250746206
25 0.0
26 0.0
27 -0.004235781199663
28 0.0
29 0.0
30 0.0
31 0.0
32 0.0
33 0.0
34 -0.000310910232645
35 0.0
36 0.0
37 0.0
38 0.0
39 0.0
40 -0.016239688778991
41 0.0
42 0.0
43 0.000190507713961
44 0.0
45 0.0
46 -0.001439286464031
47 0.0
48 0.0
49 0.0
50 0.0
51 0.0
52 0.0
53 -0.000218962827633
 Sym=     10.1
 Ene=      -6.6735
 Spin= Alpha
 Occup=    2.000000
1 0.0
2 0.0
3 0.0
4 0.0
5 0.000554097950942
6 0.0
7 0.0
8 0.001780034114989
9 0.0
10 0.0
11 0.0
12 0.0
13 0.0
14 0.0
15 0.000272263993107
16 0.0
17 0.0
18 0.0
19 0.0
20 0.0
21 0.015672761120730
22 0.0
23 0.0
24 -0.001102317408443
25 0.0
26 0.0
27 -0.001255115644831
28 0.0
29 0.0
30 0.0
31 0.0
32 0.0
33 0.0
34 0.000197190535490
35 0.0
36 0.0
37 0.0
38 0.0
39 0.0
40 -0.98399972706749
41 0.0
42 0.0
43 0.043075826040448
44 0.0
45 0.0
46 -0.003762742234273
47 0.0
48 0.0
49 0.0
50 0.0
51 0.0
52 0.0
53 0.000346585679199
 Sym=      9.1
 Ene=      -6.6757
 Spin= Alpha
 Occup=    2.000000
1 0.0
2 0.0
3 0.0
4 -0.000261291767481
5 0.0
6 0.0
7 -0.001648592205695
8 0.0
9 0.0
10 0.0
11 0.0
12 0.0
13 0.0
14 0.000284834900290
15 0.0
16 0.0
17 0.0
18 0.0
19 0.0
20 0.98420024533777
21 0.0
22 0.0
23 -0.042723250746207
24 0.0
25 0.0
26 0.004235781199662
27 0.0
28 0.0
29 0.0
30 0.0
31 0.0
32 0.0
33 0.000310910232646
34 0.0
35 0.0
36 0.0
37 0.0
38 0.0
39 0.016239688778242
40 0.0
41 0.0
42 -0.000190507713929
43 0.0
44 0.0
45 0.001439286464028
46 0.0
47 0.0
48 0.0
49 0.0
50 0.0
51 0.0
52 0.000218962827633
53 0.0
 Sym=     11.1
 Ene=      -6.6735
 Spin= Alpha
 Occup=    2.000000
1 0.0
2 0.0
3 0.0
4 0.000554097950942
5 0.0
6 0.0
7 0.001780034114990
8 0.0
9 0.0
10 0.0
11 0.0
12 0.0
13 0.0
14 0.000272263993107
15 0.0
16 0.0
17 0.0
18 0.0
19 0.0
20 0.015672761119981
21 0.0
22 0.0
23 -0.001102317408411
24 0.0
25 0.0
26 -0.001255115644835
27 0.0
28 0.0
29 0.0
30 0.0
31 0.0
32 0.0
33 0.000197190535490
34 0.0
35 0.0
36 0.0
37 0.0
38 0.0
39 -0.98399972706750
40 0.0
41 0.0
42 0.043075826040447
43 0.0
44 0.0
45 -0.003762742234274
46 0.0
47 0.0
48 0.0
49 0.0
50 0.0
51 0.0
52 0.000346585679199
53 0.0
 Sym=     15.1
 Ene=      -0.7151
 Spin= Alpha
 Occup=    1.973026
1 -0.16995520524187
2 0.38191207905400
3 0.096190883214844
4 0.0
5 0.0
6 -0.35728203561394
7 0.0
8 0.0
9 -0.13572340043008
10 -0.010088256110776
11 -0.010088256110776
12 0.020176512221551
13 0.0
14 0.0
15 0.0
16 0.006179153580931
17 0.040189199568712
18 -0.070028036076709
19 0.052190997679985
20 0.0
21 0.0
22 0.034214157117446
23 0.0
24 0.0
25 0.065277270801877
26 0.0
27 0.0
28 0.035412398959986
29 0.004680446307028
30 0.004680446307028
31 -0.009360892614057
32 0.0
33 0.0
34 0.0
35 0.003063426403025
36 0.034098776544369
37 -0.061212872484419
38 -0.23266778588780
39 0.0
40 0.0
41 0.21714219526569
42 0.0
43 0.0
44 0.35696428154924
45 0.0
46 0.0
47 0.28967206483001
48 -0.031752079478524
49 -0.031752079478524
50 0.063504158957047
51 0.0
52 0.0
53 0.0
 Sym=     22.1
 Ene=       0.4782
 Spin= Alpha
 Occup=    0.026466
1 -0.21990982282565
2 0.88083819860081
3 0.21813886826290
4 0.0
5 0.0
6 -0.64383164365500
7 0.0
8 0.0
9 -0.086004234824107
10 -0.015988373031829
11 -0.015988373031829
12 0.031976746063657
13 0.0
14 0.0
15 0.0
16 0.003576880219972
17 0.021941840654793
18 -0.026603198040587
19 -0.030604902659292
20 0.0
21 0.0
22 0.042083603997893
23 0.0
24 0.0
25 0.078588001716424
26 0.0
27 0.0
28 0.087136280738444
29 0.019093578251112
30 0.019093578251112
31 -0.038187156502223
32 0.0
33 0.0
34 0.0
35 0.026683918913172
36 0.18608678746417
37 -0.27926307570273
38 -0.41758438374893
39 0.0
40 0.0
41 -0.25600783045403
42 0.0
43 0.0
44 -0.61454967278632
45 0.0
46 0.0
47 -0.62368853443637
48 -0.020464375023343
49 -0.020464375023343
50 0.040928750046686
51 0.0
52 0.0
53 0.0
 Sym=     16.1
 Ene=      -0.5089
 Spin= Alpha
 Occup=    1.962933
1 0.0
2 0.0
3 0.0
4 0.0
5 0.38700654165006
6 0.0
7 0.0
8 0.23585937626101
9 0.0
10 0.0
11 0.0
12 0.0
13 0.0
14 0.0
15 0.002970151154521
16 0.0
17 0.0
18 0.0
19 0.0
20 0.0
21 0.15130813042945
22 0.0
23 0.0
24 0.26681926944172
25 0.0
26 0.0
27 0.30238607075771
28 0.0
29 0.0
30 0.0
31 0.0
32 0.0
33 0.0
34 -0.051689620013261
35 0.0
36 0.0
37 0.0
38 0.0
39 0.0
40 0.12304242170091
41 0.0
42 0.0
43 0.21636039036256
44 0.0
45 0.0
46 0.23033892791305
47 0.0
48 0.0
49 0.0
50 0.0
51 0.0
52 0.0
53 0.046924705568249
 Sym=     18.1
 Ene=      -0.3603
 Spin= Alpha
 Occup=    1.949084
1 0.0
2 0.0
3 0.0
4 0.030763911992493
5 0.0
6 0.0
7 0.020174721660259
8 0.0
9 0.0
10 0.0
11 0.0
12 0.0
13 0.0
14 -0.042021706902438
15 0.0
16 0.0
17 0.0
18 0.0
19 0.0
20 -0.17622235753824
21 0.0
22 0.0
23 -0.30820775739402
24 0.0
25 0.0
26 -0.45767247492009
27 0.0
28 0.0
29 0.0
30 0.0
31 0.0
32 0.0
33 0.016839731193874
34 0.0
35 0.0
36 0.0
37 0.0
38 0.0
39 0.19801820167861
40 0.0
41 0.0
42 0.34621083695451
43 0.0
44 0.0
45 0.49788376530759
46 0.0
47 0.0
48 0.0
49 0.0
50 0.0
51 0.0
52 0.023923122779887
53 0.0
 Sym=     21.1
 Ene=       0.0950
 Spin= Alpha
 Occup=    0.088237
1 0.0
2 0.0
3 0.0
4 0.0
5 0.61148883213797
6 0.0
7 0.0
8 0.38112728573996
9 0.0
10 0.0
11 0.0
12 0.0
13 0.0
14 0.0
15 -0.023039952189316
16 0.0
17 0.0
18 0.0
19 0.0
20 0.0
21 -0.15395895963629
22 0.0
23 0.0
24 -0.31963017741019
25 0.0
26 0.0
27 -0.37533050224311
28 0.0
29 0.0
30 0.0
31 0.0
32 0.0
33 0.0
34 -0.054270225752928
35 0.0
36 0.0
37 0.0
38 0.0
39 0.0
40 -0.16068497995984
41 0.0
42 0.0
43 -0.34018773625453
44 0.0
45 0.0
46 -0.36161361155643
47 0.0
48 0.0
49 0.0
50 0.0
51 0.0
52 0.0
53 0.079921935228859
 Sym=     17.1
 Ene=      -0.5089
 Spin= Alpha
 Occup=    1.962933
1 0.0
2 0.0
3 0.0
4 0.38700654165006
5 0.0
6 0.0
7 0.23585937626101
8 0.0
9 0.0
10 0.0
11 0.0
12 0.0
13 0.0
14 0.002970151154521
15 0.0
16 0.0
17 0.0
18 0.0
19 0.0
20 0.15130813042945
21 0.0
22 0.0
23 0.26681926944172
24 0.0
25 0.0
26 0.30238607075771
27 0.0
28 0.0
29 0.0
30 0.0
31 0.0
32 0.0
33 -0.051689620013260
34 0.0
35 0.0
36 0.0
37 0.0
38 0.0
39 0.12304242170091
40 0.0
41 0.0
42 0.21636039036256
43 0.0
44 0.0
45 0.23033892791305
46 0.0
47 0.0
48 0.0
49 0.0
50 0.0
51 0.0
52 0.046924705568249
53 0.0
 Sym=     19.1
 Ene=      -0.3603
 Spin= Alpha
 Occup=    1.949084
1 0.0
2 0.0
3 0.0
4 0.0
5 -0.030763911992495
6 0.0
7 0.0
8 -0.020174721660257
9 0.0
10 0.0
11 0.0
12 0.0
13 0.0
14 0.0
15 0.042021706902438
16 0.0
17 0.0
18 0.0
19 0.0
20 0.0
21 0.17622235753824
22 0.0
23 0.0
24 0.30820775739402
25 0.0
26 0.0
27 0.45767247492009
28 0.0
29 0.0
30 0.0
31 0.0
32 0.0
33 0.0
34 -0.016839731193874
35 0.0
36 0.0
37 0.0
38 0.0
39 0.0
40 -0.19801820167861
41 0.0
42 0.0
43 -0.34621083695451
44 0.0
45 0.0
46 -0.49788376530759
47 0.0
48 0.0
49 0.0
50 0.0
51 0.0
52 0.0
53 -0.023923122779887
 Sym=     20.1
 Ene=       0.0950
 Spin= Alpha
 Occup=    0.088237
1 0.0
2 0.0
3 0.0
4 0.61148883213797
5 0.0
6 0.0
7 0.38112728573995
8 0.0
9 0.0
10 0.0
11 0.0
12 0.0
13 0.0
14 -0.023039952189316
15 0.0
16 0.0
17 0.0
18 0.0
19 0.0
20 -0.15395895963629
21 0.0
22 0.0
23 -0.31963017741019
24 0.0
25 0.0
26 -0.37533050224311
27 0.0
28 0.0
29 0.0
30 0.0
31 0.0
32 0.0
33 -0.054270225752928
34 0.0
35 0.0
36 0.0
37 0.0
38 0.0
39 -0.16068497995984
40 0.0
41 0.0
42 -0.34018773625453
43 0.0
44 0.0
45 -0.36161361155643
46 0.0
47 0.0
48 0.0
49 0.0
50 0.0
51 0.0
52 0.079921935228859
53 0.0
 Sym=     23.1
 Ene=       0.3080
 Spin= Alpha
 Occup=   -0.000000
1 -0.076539018992983
2 0.074963747974078
3 1.63610499752820
4 0.0
5 0.0
6 0.34670174290711
7 0.0
8 0.0
9 2.48749702816490
10 0.015773337375415
11 0.015773337375415
12 -0.031546674750830
13 0.0
14 0.0
15 0.0
16 0.023234368426739
17 0.15859862447138
18 -0.11011168403310
19 -2.66275934969683
20 0.0
21 0.0
22 0.11348774525150
23 0.0
24 0.0
25 0.12823695994138
26 0.0
27 0.0
28 2.12889163353640
29 -0.076389553881007
30 -0.076389553881007
31 0.15277910776201
32 0.0
33 0.0
34 0.0
35 0.020945833215998
36 0.15001436159491
37 -0.55962047022229
38 1.74136475553374
39 0.0
40 0.0
41 -0.038648943165852
42 0.0
43 0.0
44 -0.10378798262623
45 0.0
46 0.0
47 0.77643021735360
48 0.032430884251459
49 0.032430884251459
50 -0.064861768502918
51 0.0
52 0.0
53 0.0
 Sym=     24.1
 Ene=       0.3834
 Spin= Alpha
 Occup=   -0.000000
1 0.13915413392122
2 -1.01901538083443
3 1.24045458731510
4 0.0
5 0.0
6 -0.11112341693410
7 0.0
8 0.0
9 -1.20523241590720
10 0.021892939100199
11 0.021892939100199
12 -0.043785878200397
13 0.0
14 0.0
15 0.0
16 0.029868302034446
17 0.22214504663446
18 -0.96340631500529
19 1.53981592941082
20 0.0
21 0.0
22 0.007255290680234
23 0.0
24 0.0
25 0.094209405787844
26 0.0
27 0.0
28 -0.70544986704276
29 0.091005524691378
30 0.091005524691378
31 -0.18201104938276
32 0.0
33 0.0
34 0.0
35 0.025570158332745
36 0.18690208647050
37 -0.62239712189516
38 -0.65857025274247
39 0.0
40 0.0
41 -0.032366112025820
42 0.0
43 0.0
44 -0.082760560888900
45 0.0
46 0.0
47 -0.65434692182676
48 0.052842012288972
49 0.052842012288972
50 -0.10568402457794
51 0.0
52 0.0
53 0.0
 Sym=     25.1
 Ene=       0.5247
 Spin= Alpha
 Occup=   -0.000000
1 0.037920960054149
2 -0.15693709820293
3 -0.23670782494871
4 0.0
5 0.0
6 -0.28718976672011
7 0.0
8 0.0
9 2.45413756507066
10 0.000916823046681
11 0.000916823046681
12 -0.001833646093362
13 0.0
14 0.0
15 0.0
16 -0.050077726299631
17 -0.36919978936712
18 1.38296700266007
19 -2.84506919262209
20 0.0
21 0.0
22 0.022975214850584
23 0.0
24 0.0
25 0.11756629917793
26 0.0
27 0.0
28 0.64381663195995
29 0.078531895457604
30 0.078531895457604
31 -0.15706379091521
32 0.0
33 0.0
34 0.0
35 0.046723876881449
36 0.34926898072860
37 -1.46282940124728
38 3.20488182966202
39 0.0
40 0.0
41 0.038280167320359
42 0.0
43 0.0
44 0.085055145805564
45 0.0
46 0.0
47 1.07815051166328
48 -0.032270786019621
49 -0.032270786019621
50 0.064541572039242
51 0.0
52 0.0
53 0.0
 Sym=     26.1
 Ene=       0.6662
 Spin= Alpha
 Occup=   -0.000000
1 -0.090666133090892
2 0.82008694877120
3 -3.00292521698623
4 0.0
5 0.0
6 -0.002127419351106
7 0.0
8 0.0
9 -0.22471172978734
10 -0.012416579764645
11 -0.012416579764645
12 0.024833159529290
13 0.0
14 0.0
15 0.0
16 0.033887818630869
17 0.25949700916141
18 -1.23111160582992
19 2.39807005033759
20 0.0
21 0.0
22 -0.12630654737202
23 0.0
24 0.0
25 -0.36874486013433
26 0.0
27 0.0
28 -0.50670298402607
29 -0.021957445038133
30 -0.021957445038133
31 0.043914890076266
32 0.0
33 0.0
34 0.0
35 0.037134116109463
36 0.28354250402191
37 -1.30799140331454
38 2.12460282932613
39 0.0
40 0.0
41 0.13173995172413
42 0.0
43 0.0
44 0.39483539298949
45 0.0
46 0.0
47 0.27774783380528
48 -0.023781578487825
49 -0.023781578487825
50 0.047563156975650
51 0.0
52 0.0
53 0.0
 Sym=     27.1
 Ene=       0.7047
 Spin= Alpha
 Occup=   -0.000000
1 0.0
2 0.0
3 0.0
4 -0.92666996750246
5 0.0
6 0.0
7 1.32604408007864
8 0.0
9 0.0
10 0.0
11 0.0
12 0.0
13 0.0
14 -0.003304967908812
15 0.0
16 0.0
17 0.0
18 0.0
19 0.0
20 -0.080337799274244
21 0.0
22 0.0
23 -0.22819885520210
24 0.0
25 0.0
26 -0.21800714376910
27 0.0
28 0.0
29 0.0
30 0.0
31 0.0
32 0.0
33 0.041791193489124
34 0.0
35 0.0
36 0.0
37 0.0
38 0.0
39 -0.075416509031611
40 0.0
41 0.0
42 -0.21027683444330
43 0.0
44 0.0
45 -0.23056089907941
46 0.0
47 0.0
48 0.0
49 0.0
50 0.0
51 0.0
52 -0.017676051207397
53 0.0
 Sym=     28.1
 Ene=       0.7047
 Spin= Alpha
 Occup=   -0.000000
1 0.0
2 0.0
3 0.0
4 0.0
5 -0.92666996750246
6 0.0
7 0.0
8 1.32604408007863
9 0.0
10 0.0
11 0.0
12 0.0
13 0.0
14 0.0
15 -0.003304967908811
16 0.0
17 0.0
18 0.0
19 0.0
20 0.0
21 -0.080337799274244
22 0.0
23 0.0
24 -0.22819885520210
25 0.0
26 0.0
27 -0.21800714376910
28 0.0
29 0.0
30 0.0
31 0.0
32 0.0
33 0.0
34 0.041791193489124
35 0.0
36 0.0
37 0.0
38 0.0
39 0.0
40 -0.075416509031614
41 0.0
42 0.0
43 -0.21027683444331
44 0.0
45 0.0
46 -0.23056089907940
47 0.0
48 0.0
49 0.0
50 0.0
51 0.0
52 0.0
53 -0.017676051207400
 Sym=     29.1
 Ene=       0.7854
 Spin= Alpha
 Occup=   -0.000000
1 0.0
2 0.0
3 0.0
4 -0.019636632836852
5 0.0
6 0.0
7 0.064387593084411
8 0.0
9 0.0
10 0.0
11 0.0
12 0.0
13 0.0
14 0.20286816747456
15 0.0
16 0.0
17 0.0
18 0.0
19 0.0
20 0.065911113775172
21 0.0
22 0.0
23 0.25246729930363
24 0.0
25 0.0
26 -0.32035381119653
27 0.0
28 0.0
29 0.0
30 0.0
31 0.0
32 0.0
33 -0.62147254427977
34 0.0
35 0.0
36 0.0
37 0.0
38 0.0
39 -0.059564977881920
40 0.0
41 0.0
42 -0.21490254403603
43 0.0
44 0.0
45 0.21577843772713
46 0.0
47 0.0
48 0.0
49 0.0
50 0.0
51 0.0
52 -0.59848689132536
53 0.0
 Sym=     30.1
 Ene=       0.7854
 Spin= Alpha
 Occup=   -0.000000
1 0.0
2 0.0
3 0.0
4 0.0
5 0.019636632836848
6 0.0
7 0.0
8 -0.064387593084406
9 0.0
10 0.0
11 0.0
12 0.0
13 0.0
14 0.0
15 -0.20286816747456
16 0.0
17 0.0
18 0.0
19 0.0
20 0.0
21 -0.065911113775172
22 0.0
23 0.0
24 -0.25246729930363
25 0.0
26 0.0
27 0.32035381119653
28 0.0
29 0.0
30 0.0
31 0.0
32 0.0
33 0.0
34 0.62147254427977
35 0.0
36 0.0
37 0.0
38 0.0
39 0.0
40 0.059564977881920
41 0.0
42 0.0
43 0.21490254403603
44 0.0
45 0.0
46 -0.21577843772713
47 0.0
48 0.0
49 0.0
50 0.0
51 0.0
52 0.0
53 0.59848689132536
 Sym=     31.1
 Ene=       0.8777
 Spin= Alpha
 Occup=   -0.000000
1 0.084105327278890
2 -0.54744946153241
3 3.12517300152835
4 0.0
5 0.0
6 0.30892544458862
7 0.0
8 0.0
9 -4.75528419682633
10 -0.056295879210390
11 -0.056295879210390
12 0.11259175842078
13 0.0
14 0.0
15 0.0
16 -0.013579626767984
17 -0.10944344710662
18 0.61996482315729
19 1.55119711441950
20 0.0
21 0.0
22 0.012954769728147
23 0.0
24 0.0
25 -0.025622990151077
26 0.0
27 0.0
28 -0.96413455832472
29 -0.12958458601859
30 -0.12958458601859
31 0.25916917203718
32 0.0
33 0.0
34 0.0
35 0.003966689855937
36 0.023785462725205
37 0.31924379464176
38 -4.81268860204018
39 0.0
40 0.0
41 0.21517053351696
42 0.0
43 0.0
44 0.86456447045388
45 0.0
46 0.0
47 -3.63739512927893
48 -0.052640663556409
49 -0.052640663556409
50 0.10528132711282
51 0.0
52 0.0
53 0.0
 Sym=     32.1
 Ene=       0.8826
 Spin= Alpha
 Occup=   -0.000000
1 0.0
2 0.0
3 0.0
4 0.0
5 0.0
6 0.0
7 0.0
8 0.0
9 0.0
10 0.0
11 0.0
12 0.0
13 0.10071679649672
14 0.0
15 0.0
16 0.0
17 0.0
18 0.0
19 0.0
20 0.0
21 0.0
22 0.0
23 0.0
24 0.0
25 0.0
26 0.0
27 0.0
28 0.0
29 0.0
30 0.0
31 0.0
32 0.77071764428437
33 0.0
34 0.0
35 0.0
36 0.0
37 0.0
38 0.0
39 0.0
40 0.0
41 0.0
42 0.0
43 0.0
44 0.0
45 0.0
46 0.0
47 0.0
48 0.0
49 0.0
50 0.0
51 0.61685461962351
52 0.0
53 0.0
 Sym=     33.1
 Ene=       0.8826
 Spin= Alpha
 Occup=   -0.000000
1 0.0
2 0.0
3 0.0
4 0.0
5 0.0
6 0.0
7 0.0
8 0.0
9 0.0
10 0.087223304353950
11 -0.087223304353950
12 0.0
13 0.0
14 0.0
15 0.0
16 0.0
17 0.0
18 0.0
19 0.0
20 0.0
21 0.0
22 0.0
23 0.0
24 0.0
25 0.0
26 0.0
27 0.0
28 0.0
29 0.66746105909510
30 -0.66746105909510
31 0.0
32 0.0
33 0.0
34 0.0
35 0.0
36 0.0
37 0.0
38 0.0
39 0.0
40 0.0
41 0.0
42 0.0
43 0.0
44 0.0
45 0.0
46 0.0
47 0.0
48 0.53421177103583
49 -0.53421177103583
50 0.0
51 0.0
52 0.0
53 0.0
 Sym=     34.1
 Ene=       0.8867
 Spin= Alpha
 Occup=   -0.000000
1 0.0
2 0.0
3 0.0
4 -0.24527761942957
5 0.0
6 0.0
7 0.49163098902052
8 0.0
9 0.0
10 0.0
11 0.0
12 0.0
13 0.0
14 -0.004986768724361
15 0.0
16 0.0
17 0.0
18 0.0
19 0.0
20 0.19732033795951
21 0.0
22 0.0
23 0.70641575321473
24 0.0
25 0.0
26 -0.79318205948803
27 0.0
28 0.0
29 0.0
30 0.0
31 0.0
32 0.0
33 -0.32163684300529
34 0.0
35 0.0
36 0.0
37 0.0
38 0.0
39 0.21795416116036
40 0.0
41 0.0
42 0.77842898512585
43 0.0
44 0.0
45 -0.85664824691921
46 0.0
47 0.0
48 0.0
49 0.0
50 0.0
51 0.0
52 0.36286333390806
53 0.0
 Sym=     35.1
 Ene=       0.8867
 Spin= Alpha
 Occup=   -0.000000
1 0.0
2 0.0
3 0.0
4 0.0
5 -0.24527761942958
6 0.0
7 0.0
8 0.49163098902052
9 0.0
10 0.0
11 0.0
12 0.0
13 0.0
14 0.0
15 -0.004986768724360
16 0.0
17 0.0
18 0.0
19 0.0
20 0.0
21 0.19732033795951
22 0.0
23 0.0
24 0.70641575321473
25 0.0
26 0.0
27 -0.79318205948803
28 0.0
29 0.0
30 0.0
31 0.0
32 0.0
33 0.0
34 -0.32163684300530
35 0.0
36 0.0
37 0.0
38 0.0
39 0.0
40 0.21795416116036
41 0.0
42 0.0
43 0.77842898512584
44 0.0
45 0.0
46 -0.85664824691920
47 0.0
48 0.0
49 0.0
50 0.0
51 0.0
52 0.0
53 0.36286333390806
 Sym=     36.1
 Ene=       0.8932
 Spin= Alpha
 Occup=   -0.000000
1 0.0
2 0.0
3 0.0
4 0.0
5 0.0
6 0.0
7 0.0
8 0.0
9 0.0
10 0.0
11 0.0
12 0.0
13 0.009142997039717
14 0.0
15 0.0
16 0.0
17 0.0
18 0.0
19 0.0
20 0.0
21 0.0
22 0.0
23 0.0
24 0.0
25 0.0
26 0.0
27 0.0
28 0.0
29 0.0
30 0.0
31 0.0
32 -0.62656140325256
33 0.0
34 0.0
35 0.0
36 0.0
37 0.0
38 0.0
39 0.0
40 0.0
41 0.0
42 0.0
43 0.0
44 0.0
45 0.0
46 0.0
47 0.0
48 0.0
49 0.0
50 0.0
51 0.77929461409604
52 0.0
53 0.0
 Sym=     37.1
 Ene=       0.8932
 Spin= Alpha
 Occup=   -0.000000
1 0.0
2 0.0
3 0.0
4 0.0
5 0.0
6 0.0
7 0.0
8 0.0
9 0.0
10 0.007918067703110
11 -0.007918067703110
12 0.0
13 0.0
14 0.0
15 0.0
16 0.0
17 0.0
18 0.0
19 0.0
20 0.0
21 0.0
22 0.0
23 0.0
24 0.0
25 0.0
26 0.0
27 0.0
28 0.0
29 -0.54261809224762
30 0.54261809224762
31 0.0
32 0.0
33 0.0
34 0.0
35 0.0
36 0.0
37 0.0
38 0.0
39 0.0
40 0.0
41 0.0
42 0.0
43 0.0
44 0.0
45 0.0
46 0.0
47 0.0
48 0.67488893283950
49 -0.67488893283950
50 0.0
51 0.0
52 0.0
53 0.0
 Sym=     38.1
 Ene=       0.9572
 Spin= Alpha
 Occup=   -0.000000
1 0.0
2 0.0
3 0.0
4 0.020934409921847
5 0.0
6 0.0
7 -0.012678149401870
8 0.0
9 0.0
10 0.0
11 0.0
12 0.0
13 0.0
14 -0.009267058572241
15 0.0
16 0.0
17 0.0
18 0.0
19 0.0
20 -0.26527850683713
21 0.0
22 0.0
23 -0.91012734458516
24 0.0
25 0.0
26 0.78835481943693
27 0.0
28 0.0
29 0.0
30 0.0
31 0.0
32 0.0
33 -0.20249105144353
34 0.0
35 0.0
36 0.0
37 0.0
38 0.0
39 0.24951751883787
40 0.0
41 0.0
42 0.86130225825906
43 0.0
44 0.0
45 -0.75512391175886
46 0.0
47 0.0
48 0.0
49 0.0
50 0.0
51 0.0
52 -0.22517172060394
53 0.0
 Sym=     39.1
 Ene=       0.9572
 Spin= Alpha
 Occup=   -0.000000
1 0.0
2 0.0
3 0.0
4 0.0
5 0.020934409921841
6 0.0
7 0.0
8 -0.012678149401861
9 0.0
10 0.0
11 0.0
12 0.0
13 0.0
14 0.0
15 -0.009267058572240
16 0.0
17 0.0
18 0.0
19 0.0
20 0.0
21 -0.26527850683713
22 0.0
23 0.0
24 -0.91012734458516
25 0.0
26 0.0
27 0.78835481943692
28 0.0
29 0.0
30 0.0
31 0.0
32 0.0
33 0.0
34 -0.20249105144353
35 0.0
36 0.0
37 0.0
38 0.0
39 0.0
40 0.24951751883787
41 0.0
42 0.0
43 0.86130225825906
44 0.0
45 0.0
46 -0.75512391175886
47 0.0
48 0.0
49 0.0
50 0.0
51 0.0
52 0.0
53 -0.22517172060393
 Sym=     40.1
 Ene=       1.0126
 Spin= Alpha
 Occup=   -0.000000
1 0.14296682598504
2 -0.71317380352858
3 2.66241700025184
4 0.0
5 0.0
6 -0.60195076413186
7 0.0
8 0.0
9 7.01179207250480
10 -0.067526132591423
11 -0.067526132591423
12 0.13505226518285
13 0.0
14 0.0
15 0.0
16 0.000088561892462
17 0.004874644865687
18 0.18481811644259
19 -5.95002647717789
20 0.0
21 0.0
22 -0.24177450433098
23 0.0
24 0.0
25 -0.82254567008146
26 0.0
27 0.0
28 3.92466402000584
29 0.079442767684030
30 0.079442767684030
31 -0.15888553536806
32 0.0
33 0.0
34 0.0
35 -0.015412598923051
36 -0.12183637710407
37 0.55482957977272
38 3.32969578760764
39 0.0
40 0.0
41 0.031991759270782
42 0.0
43 0.0
44 0.14540605585881
45 0.0
46 0.0
47 1.94231127221676
48 -0.17894770146633
49 -0.17894770146633
50 0.35789540293266
51 0.0
52 0.0
53 0.0
 Sym=     41.1
 Ene=       1.1021
 Spin= Alpha
 Occup=   -0.000000
1 -0.050400364278939
2 0.24529616984898
3 -0.50620463714592
4 0.0
5 0.0
6 -0.33470770445961
7 0.0
8 0.0
9 4.75679228975190
10 0.017635571860312
11 0.017635571860312
12 -0.035271143720624
13 0.0
14 0.0
15 0.0
16 0.021905449912750
17 0.17055510724320